3
Properties=species:S:1:pos:R:3:forces:R:3 energy=-1723.537779 pbc="T T T" Lattice="19.999988 0.000000 0.000000 0.000000 19.999988 0.000000 0.000000 0.000000 19.999988"
Ar        1.4130391591        0.3560797881       18.5083589852        0.0259036094        0.0067607163       -0.0273092316
Ar       18.3315390904        1.2388992627        0.1728198972       -0.0307884487        0.0224202785        0.0031706847
Ar        0.2554098480       18.4050090467        1.3188192151        0.0048848393       -0.0291809949        0.0241385469
