3
Properties=species:S:1:pos:R:3:forces:R:3 potential_energy=0.000000 pbc="T T T" Lattice="10.000000 0.000000 0.000000 0.000000 10.000000 0.000000 0.000000 0.000000 10.000000"
O         0.0000000000        0.0000000000        0.0000000000        0.0000000000        0.0000000000        0.0000000000
H         0.8484600000        0.4898000000        0.0000000000        0.0000000000        0.0000000000        0.0000000000
H        -0.8483020000        0.4898000000        0.0000000000        0.0000000000        0.0000000000        0.0000000000
