3
Properties=species:S:1:pos:R:3:forces:R:3 potential_energy=3.14159 pbc="F F F" 
O         0.0000000000        0.0000000000        0.0000000000        0.2448000000        0.3141000000       -0.9811300000
H         0.8484600000        0.4898000000        0.0000000000       -0.1319000000        0.9901300000        0.1388100000
H        -0.8483020000        0.4898000000        0.0000000000        0.0311000000       -0.1181800000        0.6316000000
