6
Properties=species:S:1:pos:R:3:forces:R:3 potential_energy=-936.288874 pbc="T T T" Lattice="10.000021 0.000000 0.000000 0.000000 10.000021 0.000000 0.000000 0.000000 10.000021"
H         4.4138930518        4.1465205035        5.2121266888       -0.2380852009        0.0838861042        0.0821855765
O         3.5162562110        4.4030900297        5.4938122665        0.0478104386       -0.4030106837       -0.2813861812
H         2.9438390371        3.7242396375        5.1093244780        0.2226680937        0.2988845966        0.1711262128
O         6.3394420006        4.0073842182        4.8833120145        0.1547886506        0.4688784954        0.3110690554
H         6.5120653547        4.8948470381        4.5297902895       -0.0583290796       -0.4181349421        0.1476368695
H         6.6670386725        4.0467882990        5.7962708867       -0.1288529025       -0.0305038275       -0.4306317901
6
Properties=species:S:1:pos:R:3:forces:R:3 potential_energy=-936.158568 pbc="T T T" Lattice="10.000021 0.000000 0.000000 0.000000 10.000021 0.000000 0.000000 0.000000 10.000021"
H         4.4909152098        4.1409554921        5.1989736618       -2.7087386512        0.5991249359        0.7296670533
O         3.5162562110        4.4030900297        5.4938122665        2.4323506949       -0.8469849576       -0.8709841507
H         2.9438390371        3.7242396375        5.1093244780        0.3479211943        0.2173410246        0.1015020190
O         6.3394420006        4.0073842182        4.8833120145        0.1002771453        0.4684393510        0.3173430619
H         6.5120653547        4.8948470381        4.5297902895       -0.0529986681       -0.4003223380        0.1318883471
H         6.6670386725        4.0467882990        5.7962708867       -0.1188117153       -0.0375982731       -0.4094160735
6
Properties=species:S:1:pos:R:3:forces:R:3 potential_energy=-935.878094 pbc="T T T" Lattice="10.000021 0.000000 0.000000 0.000000 10.000021 0.000000 0.000000 0.000000 10.000021"
H         4.5679373677        4.1353894807        5.1858216349       -4.0130465372        0.7951836524        1.0205658028
O         3.5162562110        4.4030900297        5.4938122665        3.7134993673       -0.9873188651       -1.1220667933
H         2.9438390371        3.7242396375        5.1093244780        0.4467474660        0.1487342164        0.0437028438
O         6.3394420006        4.0073842182        4.8833120145        0.0140256260        0.4730683655        0.3308051021
H         6.5120653547        4.8948470381        4.5297902895       -0.0503239492       -0.3827365051        0.1140073516
H         6.6670386725        4.0467882990        5.7962708867       -0.1109017158       -0.0469311212       -0.3870143069
6
Properties=species:S:1:pos:R:3:forces:R:3 potential_energy=-935.525973 pbc="T T T" Lattice="10.000021 0.000000 0.000000 0.000000 10.000021 0.000000 0.000000 0.000000 10.000021"
H         4.6449585257        4.1298244693        5.1726686079       -4.5506187441        0.8153974100        1.0998411473
O         3.5162562110        4.4030900297        5.4938122665        4.2876275220       -0.9659756217       -1.1782112064
H         2.9438390371        3.7242396375        5.1093244780        0.5160685268        0.0897083678       -0.0040062933
O         6.3394420006        4.0073842182        4.8833120145       -0.1041088607        0.4760169068        0.3469472604
H         6.5120653547        4.8948470381        4.5297902895       -0.0476697992       -0.3574173075        0.0912682562
H         6.6670386725        4.0467882990        5.7962708867       -0.1012986447       -0.0577297554       -0.3558394214
6
Properties=species:S:1:pos:R:3:forces:R:3 potential_energy=-935.152514 pbc="T T T" Lattice="10.000021 0.000000 0.000000 0.000000 10.000021 0.000000 0.000000 0.000000 10.000021"
H         4.7219806836        4.1242584578        5.1595165809       -4.6053788751        0.7444925496        1.0589932567
O         3.5162562110        4.4030900297        5.4938122665        4.4278727264       -0.8734907194       -1.1335526834
H         2.9438390371        3.7242396375        5.1093244780        0.5612834365        0.0459636150       -0.0385004733
O         6.3394420006        4.0073842182        4.8833120145       -0.2499063628        0.4818070316        0.3682704491
H         6.5120653547        4.8948470381        4.5297902895       -0.0442119223       -0.3278552752        0.0640693250
H         6.6670386725        4.0467882990        5.7962708867       -0.0896590026       -0.0709174588       -0.3192798741
6
Properties=species:S:1:pos:R:3:forces:R:3 potential_energy=-934.788659 pbc="T T T" Lattice="10.000021 0.000000 0.000000 0.000000 10.000021 0.000000 0.000000 0.000000 10.000021"
H         4.7990028416        4.1186934464        5.1463635539       -4.3670761589        0.6291623653        0.9524906988
O         3.5162562110        4.4030900297        5.4938122665        4.3110685286       -0.7563597343       -1.0408497515
H         2.9438390371        3.7242396375        5.1093244780        0.5842989254        0.0159706657       -0.0610397939
O         6.3394420006        4.0073842182        4.8833120145       -0.4184352470        0.4881239755        0.3926352531
H         6.5120653547        4.8948470381        4.5297902895       -0.0371619568       -0.2909774252        0.0313417501
H         6.6670386725        4.0467882990        5.7962708867       -0.0726943483       -0.0859195899       -0.2745784137
6
Properties=species:S:1:pos:R:3:forces:R:3 potential_energy=-934.452462 pbc="T T T" Lattice="10.000021 0.000000 0.000000 0.000000 10.000021 0.000000 0.000000 0.000000 10.000021"
H         4.8760249995        4.1131274350        5.1332115270       -3.9650862033        0.4944483756        0.8129659175
O         3.5162562110        4.4030900297        5.4938122665        4.0498207716       -0.6433152609       -0.9331842835
H         2.9438390371        3.7242396375        5.1093244780        0.5903384473        0.0021646119       -0.0706726898
O         6.3394420006        4.0073842182        4.8833120145       -0.6013018892        0.4986066211        0.4214596359
H         6.5120653547        4.8948470381        4.5297902895       -0.0248162898       -0.2486372662       -0.0068908142
H         6.6670386725        4.0467882990        5.7962708867       -0.0489548367       -0.1032668243       -0.2236780231
6
Properties=species:S:1:pos:R:3:forces:R:3 potential_energy=-934.153180 pbc="T T T" Lattice="10.000021 0.000000 0.000000 0.000000 10.000021 0.000000 0.000000 0.000000 10.000021"
H         4.9530471575        4.1075624236        5.1200585000       -3.4929231233        0.3524440223        0.6600055785
O         3.5162562110        4.4030900297        5.4938122665        3.7177501725       -0.5431461019       -0.8255113593
H         2.9438390371        3.7242396375        5.1093244780        0.5802311828        0.0000107986       -0.0704562029
O         6.3394420006        4.0073842182        4.8833120145       -0.7848185062        0.5147770615        0.4541334747
H         6.5120653547        4.8948470381        4.5297902895       -0.0045356835       -0.2007689778       -0.0513716739
H         6.6670386725        4.0467882990        5.7962708867       -0.0157040423       -0.1233168027       -0.1667998172
6
Properties=species:S:1:pos:R:3:forces:R:3 potential_energy=-933.893381 pbc="T T T" Lattice="10.000021 0.000000 0.000000 0.000000 10.000021 0.000000 0.000000 0.000000 10.000021"
H         5.0300683154        4.1019964122        5.1069064730       -3.0261277358        0.2090505018        0.5067197378
O         3.5162562110        4.4030900297        5.4938122665        3.3558581167       -0.4643135014       -0.7285277974
H         2.9438390371        3.7242396375        5.1093244780        0.5592970020        0.0108546842       -0.0602298963
O         6.3394420006        4.0073842182        4.8833120145       -0.9445881554        0.5343423869        0.4861807356
H         6.5120653547        4.8948470381        4.5297902895        0.0258784126       -0.1443941939       -0.1030611361
H         6.6670386725        4.0467882990        5.7962708867        0.0296821029       -0.1455396205       -0.1010813865
6
Properties=species:S:1:pos:R:3:forces:R:3 potential_energy=-933.669316 pbc="T T T" Lattice="10.000021 0.000000 0.000000 0.000000 10.000021 0.000000 0.000000 0.000000 10.000021"
H         5.1070904734        4.0964314008        5.0937534460       -2.6500732713        0.0672932315        0.3655952160
O         3.5162562110        4.4030900297        5.4938122665        2.9888464798       -0.4052028064       -0.6442637410
H         2.9438390371        3.7242396375        5.1093244780        0.5301340049        0.0319801551       -0.0420809918
O         6.3394420006        4.0073842182        4.8833120145       -1.0267745032        0.5567068725        0.5106980060
H         6.5120653547        4.8948470381        4.5297902895        0.0685697843       -0.0802307666       -0.1625441269
H         6.6670386725        4.0467882990        5.7962708867        0.0892975055       -0.1705466861       -0.0274041053
6
Properties=species:S:1:pos:R:3:forces:R:3 potential_energy=-933.469077 pbc="T T T" Lattice="10.000021 0.000000 0.000000 0.000000 10.000021 0.000000 0.000000 0.000000 10.000021"
H         5.1841126313        4.0908663894        5.0806004191       -2.4968331962       -0.0677130927        0.2563588039
O         3.5162562110        4.4030900297        5.4938122665        2.6369542163       -0.3591502312       -0.5708104029
H         2.9438390371        3.7242396375        5.1093244780        0.4918124804        0.0558338238       -0.0210125994
O         6.3394420006        4.0073842182        4.8833120145       -0.9199297314        0.5762089487        0.5102984566
H         6.5120653547        4.8948470381        4.5297902895        0.1241596104       -0.0073158175       -0.2299137201
H         6.6670386725        4.0467882990        5.7962708867        0.1638366205       -0.1978636310        0.0550794620
6
Properties=species:S:1:pos:R:3:forces:R:3 potential_energy=-933.267442 pbc="T T T" Lattice="10.000021 0.000000 0.000000 0.000000 10.000021 0.000000 0.000000 0.000000 10.000021"
H         5.2611347893        4.0853003780        5.0674483921       -2.7816587424       -0.1848451062        0.2126873275
O         3.5162562110        4.4030900297        5.4938122665        2.3043408573       -0.3246403675       -0.5076044545
H         2.9438390371        3.7242396375        5.1093244780        0.4499793430        0.0821668074        0.0020972490
O         6.3394420006        4.0073842182        4.8833120145       -0.4185406623        0.5801087983        0.4514227604
H         6.5120653547        4.8948470381        4.5297902895        0.1925802707        0.0748512470       -0.3053167259
H         6.6670386725        4.0467882990        5.7962708867        0.2532991909       -0.2276411218        0.1467135863
6
Properties=species:S:1:pos:R:3:forces:R:3 potential_energy=-933.015899 pbc="T T T" Lattice="10.000021 0.000000 0.000000 0.000000 10.000021 0.000000 0.000000 0.000000 10.000021"
H         5.3381569473        4.0797353665        5.0542953651       -3.8849109726       -0.2598614180        0.2973043964
O         3.5162562110        4.4030900297        5.4938122665        1.9951301953       -0.3009574201       -0.4546595224
H         2.9438390371        3.7242396375        5.1093244780        0.4105103351        0.1109423392        0.0266068062
O         6.3394420006        4.0073842182        4.8833120145        0.8521814146        0.5427730348        0.2712724890
H         6.5120653547        4.8948470381        4.5297902895        0.2717340020        0.1662228616       -0.3878887392
H         6.6670386725        4.0467882990        5.7962708867        0.3553550255       -0.2591196547        0.2473645700
6
Properties=species:S:1:pos:R:3:forces:R:3 potential_energy=-932.625519 pbc="T T T" Lattice="10.000021 0.000000 0.000000 0.000000 10.000021 0.000000 0.000000 0.000000 10.000021"
H         5.4151781052        4.0741693551        5.0411433382       -6.4631046782       -0.2473823107        0.6209888277
O         3.5162562110        4.4030900297        5.4938122665        1.7205042162       -0.2753777697       -0.4046099100
H         2.9438390371        3.7242396375        5.1093244780        0.3720731110        0.1306300491        0.0447004319
O         6.3394420006        4.0073842182        4.8833120145        3.5434165083        0.4132182212       -0.1438090108
H         6.5120653547        4.8948470381        4.5297902895        0.3592325065        0.2700509578       -0.4774672663
H         6.6670386725        4.0467882990        5.7962708867        0.4678783362       -0.2911391476        0.3601971845
6
Properties=species:S:1:pos:R:3:forces:R:3 potential_energy=-931.939603 pbc="T T T" Lattice="10.000021 0.000000 0.000000 0.000000 10.000021 0.000000 0.000000 0.000000 10.000021"
H         5.4922002632        4.0686043437        5.0279903112      -11.5938216790       -0.0698306534        1.3674624124
O         3.5162562110        4.4030900297        5.4938122665        1.4881392061       -0.2480824221       -0.3585064269
H         2.9438390371        3.7242396375        5.1093244780        0.3412990605        0.1416945354        0.0559412959
O         6.3394420006        4.0073842182        4.8833120145        8.7270753558        0.1116535064       -0.9780595505
H         6.5120653547        4.8948470381        4.5297902895        0.4508692019        0.3870559588       -0.5724553948
H         6.6670386725        4.0467882990        5.7962708867        0.5864388548       -0.3224906680        0.4856176640
